# vtk DataFile Version 2.0
t1, Created by Gmsh 4.10.5 
ASCII
DATASET UNSTRUCTURED_GRID
POINTS 11 double
0 0 0
1 0 0
1 4 0
0 4 0
1 2.66666666667037 0
1 1.333333333338887 0
0 2.66666666667037 0
0 1.333333333338887 0
0.5 0.6666666666694434 0
0.5 2.000000000004628 0
0.5 3.333333333335185 0

CELLS 12 48
3 7 0 8
3 1 5 8
3 5 4 9
3 6 7 9
3 4 2 10
3 3 6 10
3 0 1 8
3 5 7 8
3 4 6 9
3 7 5 9
3 6 4 10
3 2 3 10

CELL_TYPES 12
5
5
5
5
5
5
5
5
5
5
5
5

CELL_DATA 12
SCALARS CellEntityIds int 1
LOOKUP_TABLE default
10
10
10
10
10
10
10
10
10
10
10
10
